+ 2.007 /NodeList/8/DeviceList/0/$ns3::CsmaNetDevice/TxQueue/Enqueue ns3::EthernetHeader ( length/type=0x806, source=00:00:00:00:00:0e, destination=ff:ff:ff:ff:ff:ff) ns3::ArpHeader (request source mac: 00-06-00:00:00:00:00:0e source ipv4: 192.138.2.3 dest ipv4: 192.138.2.1) Payload (size=18) ns3::EthernetTrailer (fcs=0)
- 2.007 /NodeList/8/DeviceList/0/$ns3::CsmaNetDevice/TxQueue/Dequeue ns3::EthernetHeader ( length/type=0x806, source=00:00:00:00:00:0e, destination=ff:ff:ff:ff:ff:ff) ns3::ArpHeader (request source mac: 00-06-00:00:00:00:00:0e source ipv4: 192.138.2.3 dest ipv4: 192.138.2.1) Payload (size=18) ns3::EthernetTrailer (fcs=0)
r 2.00708 /NodeList/8/DeviceList/0/$ns3::CsmaNetDevice/MacRx ns3::EthernetHeader ( length/type=0x806, source=00:00:00:00:00:0c, destination=00:00:00:00:00:0e) ns3::ArpHeader (reply source mac: 00-06-00:00:00:00:00:0c source ipv4: 192.138.2.1 dest mac: 00-06-00:00:00:00:00:0e dest ipv4: 192.138.2.3) Payload (size=18) ns3::EthernetTrailer (fcs=0)
+ 2.00708 /NodeList/8/DeviceList/0/$ns3::CsmaNetDevice/TxQueue/Enqueue ns3::EthernetHeader ( length/type=0x800, source=00:00:00:00:00:0e, destination=00:00:00:00:00:0c) ns3::Ipv4Header (tos 0x0 DSCP Default ECN Not-ECT ttl 64 id 0 protocol 6 offset (bytes) 0 flags [none] length: 56 192.138.2.3 > 192.138.1.3) ns3::TcpHeader (49153 > 2400 [SYN] Seq=0 Ack=0 Win=65535 ns3::TcpOptionTS(2000;0) ns3::TcpOptionWinScale(2) ns3::TcpOptionSackPermitted([sack_perm]) ns3::TcpOptionEnd(EOL)) ns3::EthernetTrailer (fcs=0)
- 2.00708 /NodeList/8/DeviceList/0/$ns3::CsmaNetDevice/TxQueue/Dequeue ns3::EthernetHeader ( length/type=0x800, source=00:00:00:00:00:0e, destination=00:00:00:00:00:0c) ns3::Ipv4Header (tos 0x0 DSCP Default ECN Not-ECT ttl 64 id 0 protocol 6 offset (bytes) 0 flags [none] length: 56 192.138.2.3 > 192.138.1.3) ns3::TcpHeader (49153 > 2400 [SYN] Seq=0 Ack=0 Win=65535 ns3::TcpOptionTS(2000;0) ns3::TcpOptionWinScale(2) ns3::TcpOptionSackPermitted([sack_perm]) ns3::TcpOptionEnd(EOL)) ns3::EthernetTrailer (fcs=0)
r 2.02339 /NodeList/8/DeviceList/0/$ns3::CsmaNetDevice/MacRx ns3::EthernetHeader ( length/type=0x806, source=00:00:00:00:00:0c, destination=ff:ff:ff:ff:ff:ff) ns3::ArpHeader (request source mac: 00-06-00:00:00:00:00:0c source ipv4: 192.138.2.1 dest ipv4: 192.138.2.3) Payload (size=18) ns3::EthernetTrailer (fcs=0)
+ 2.02339 /NodeList/8/DeviceList/0/$ns3::CsmaNetDevice/TxQueue/Enqueue ns3::EthernetHeader ( length/type=0x806, source=00:00:00:00:00:0e, destination=00:00:00:00:00:0c) ns3::ArpHeader (reply source mac: 00-06-00:00:00:00:00:0e source ipv4: 192.138.2.3 dest mac: 00-06-00:00:00:00:00:0c dest ipv4: 192.138.2.1) Payload (size=18) ns3::EthernetTrailer (fcs=0)
- 2.02339 /NodeList/8/DeviceList/0/$ns3::CsmaNetDevice/TxQueue/Dequeue ns3::EthernetHeader ( length/type=0x806, source=00:00:00:00:00:0e, destination=00:00:00:00:00:0c) ns3::ArpHeader (reply source mac: 00-06-00:00:00:00:00:0e source ipv4: 192.138.2.3 dest mac: 00-06-00:00:00:00:00:0c dest ipv4: 192.138.2.1) Payload (size=18) ns3::EthernetTrailer (fcs=0)
r 2.02347 /NodeList/8/DeviceList/0/$ns3::CsmaNetDevice/MacRx ns3::EthernetHeader ( length/type=0x800, source=00:00:00:00:00:0c, destination=00:00:00:00:00:0e) ns3::Ipv4Header (tos 0x0 DSCP Default ECN Not-ECT ttl 61 id 0 protocol 6 offset (bytes) 0 flags [none] length: 56 192.138.1.3 > 192.138.2.3) ns3::TcpHeader (2400 > 49153 [SYN|ACK] Seq=0 Ack=1 Win=65535 ns3::TcpOptionTS(2011;2000) ns3::TcpOptionWinScale(2) ns3::TcpOptionSackPermitted([sack_perm]) ns3::TcpOptionEnd(EOL)) ns3::EthernetTrailer (fcs=0)
+ 2.02347 /NodeList/8/DeviceList/0/$ns3::CsmaNetDevice/TxQueue/Enqueue ns3::EthernetHeader ( length/type=0x800, source=00:00:00:00:00:0e, destination=00:00:00:00:00:0c) ns3::Ipv4Header (tos 0x0 DSCP Default ECN Not-ECT ttl 64 id 1 protocol 6 offset (bytes) 0 flags [none] length: 52 192.138.2.3 > 192.138.1.3) ns3::TcpHeader (49153 > 2400 [ACK] Seq=1 Ack=1 Win=32768 ns3::TcpOptionTS(2023;2011) ns3::TcpOptionEnd(EOL)) ns3::EthernetTrailer (fcs=0)
- 2.02347 /NodeList/8/DeviceList/0/$ns3::CsmaNetDevice/TxQueue/Dequeue ns3::EthernetHeader ( length/type=0x800, source=00:00:00:00:00:0e, destination=00:00:00:00:00:0c) ns3::Ipv4Header (tos 0x0 DSCP Default ECN Not-ECT ttl 64 id 1 protocol 6 offset (bytes) 0 flags [none] length: 52 192.138.2.3 > 192.138.1.3) ns3::TcpHeader (49153 > 2400 [ACK] Seq=1 Ack=1 Win=32768 ns3::TcpOptionTS(2023;2011) ns3::TcpOptionEnd(EOL)) ns3::EthernetTrailer (fcs=0)
+ 2.09547 /NodeList/8/DeviceList/0/$ns3::CsmaNetDevice/TxQueue/Enqueue ns3::EthernetHeader ( length/type=0x800, source=00:00:00:00:00:0e, destination=00:00:00:00:00:0c) ns3::Ipv4Header (tos 0x0 DSCP Default ECN Not-ECT ttl 64 id 2 protocol 6 offset (bytes) 0 flags [none] length: 588 192.138.2.3 > 192.138.1.3) ns3::TcpHeader (49153 > 2400 [ACK] Seq=1 Ack=1 Win=32768 ns3::TcpOptionTS(2095;2011) ns3::TcpOptionEnd(EOL)) Payload Fragment [0:536] ns3::EthernetTrailer (fcs=0)
- 2.09547 /NodeList/8/DeviceList/0/$ns3::CsmaNetDevice/TxQueue/Dequeue ns3::EthernetHeader ( length/type=0x800, source=00:00:00:00:00:0e, destination=00:00:00:00:00:0c) ns3::Ipv4Header (tos 0x0 DSCP Default ECN Not-ECT ttl 64 id 2 protocol 6 offset (bytes) 0 flags [none] length: 588 192.138.2.3 > 192.138.1.3) ns3::TcpHeader (49153 > 2400 [ACK] Seq=1 Ack=1 Win=32768 ns3::TcpOptionTS(2095;2011) ns3::TcpOptionEnd(EOL)) Payload Fragment [0:536] ns3::EthernetTrailer (fcs=0)
+ 2.09547 /NodeList/8/DeviceList/0/$ns3::CsmaNetDevice/TxQueue/Enqueue ns3::EthernetHeader ( length/type=0x800, source=00:00:00:00:00:0e, destination=00:00:00:00:00:0c) ns3::Ipv4Header (tos 0x0 DSCP Default ECN Not-ECT ttl 64 id 3 protocol 6 offset (bytes) 0 flags [none] length: 588 192.138.2.3 > 192.138.1.3) ns3::TcpHeader (49153 > 2400 [ACK] Seq=537 Ack=1 Win=32768 ns3::TcpOptionTS(2095;2011) ns3::TcpOptionEnd(EOL)) Payload Fragment [536:1072] ns3::EthernetTrailer (fcs=0)
+ 2.09547 /NodeList/8/DeviceList/0/$ns3::CsmaNetDevice/TxQueue/Enqueue ns3::EthernetHeader ( length/type=0x800, source=00:00:00:00:00:0e, destination=00:00:00:00:00:0c) ns3::Ipv4Header (tos 0x0 DSCP Default ECN Not-ECT ttl 64 id 4 protocol 6 offset (bytes) 0 flags [none] length: 588 192.138.2.3 > 192.138.1.3) ns3::TcpHeader (49153 > 2400 [ACK] Seq=1073 Ack=1 Win=32768 ns3::TcpOptionTS(2095;2011) ns3::TcpOptionEnd(EOL)) Payload Fragment [1072:1608] ns3::EthernetTrailer (fcs=0)
+ 2.09547 /NodeList/8/DeviceList/0/$ns3::CsmaNetDevice/TxQueue/Enqueue ns3::EthernetHeader ( length/type=0x800, source=00:00:00:00:00:0e, destination=00:00:00:00:00:0c) ns3::Ipv4Header (tos 0x0 DSCP Default ECN Not-ECT ttl 64 id 5 protocol 6 offset (bytes) 0 flags [none] length: 588 192.138.2.3 > 192.138.1.3) ns3::TcpHeader (49153 > 2400 [ACK] Seq=1609 Ack=1 Win=32768 ns3::TcpOptionTS(2095;2011) ns3::TcpOptionEnd(EOL)) Payload Fragment [1608:2144] ns3::EthernetTrailer (fcs=0)
+ 2.09547 /NodeList/8/DeviceList/0/$ns3::CsmaNetDevice/TxQueue/Enqueue ns3::EthernetHeader ( length/type=0x800, source=00:00:00:00:00:0e, destination=00:00:00:00:00:0c) ns3::Ipv4Header (tos 0x0 DSCP Default ECN Not-ECT ttl 64 id 6 protocol 6 offset (bytes) 0 flags [none] length: 588 192.138.2.3 > 192.138.1.3) ns3::TcpHeader (49153 > 2400 [ACK] Seq=2145 Ack=1 Win=32768 ns3::TcpOptionTS(2095;2011) ns3::TcpOptionEnd(EOL)) Payload Fragment [2144:2680] ns3::EthernetTrailer (fcs=0)
+ 2.09547 /NodeList/8/DeviceList/0/$ns3::CsmaNetDevice/TxQueue/Enqueue ns3::EthernetHeader ( length/type=0x800, source=00:00:00:00:00:0e, destination=00:00:00:00:00:0c) ns3::Ipv4Header (tos 0x0 DSCP Default ECN Not-ECT ttl 64 id 7 protocol 6 offset (bytes) 0 flags [none] length: 588 192.138.2.3 > 192.138.1.3) ns3::TcpHeader (49153 > 2400 [ACK] Seq=2681 Ack=1 Win=32768 ns3::TcpOptionTS(2095;2011) ns3::TcpOptionEnd(EOL)) Payload Fragment [2680:3216] ns3::EthernetTrailer (fcs=0)
+ 2.09547 /NodeList/8/DeviceList/0/$ns3::CsmaNetDevice/TxQueue/Enqueue ns3::EthernetHeader ( length/type=0x800, source=00:00:00:00:00:0e, destination=00:00:00:00:00:0c) ns3::Ipv4Header (tos 0x0 DSCP Default ECN Not-ECT ttl 64 id 8 protocol 6 offset (bytes) 0 flags [none] length: 588 192.138.2.3 > 192.138.1.3) ns3::TcpHeader (49153 > 2400 [ACK] Seq=3217 Ack=1 Win=32768 ns3::TcpOptionTS(2095;2011) ns3::TcpOptionEnd(EOL)) Payload Fragment [3216:3752] ns3::EthernetTrailer (fcs=0)
+ 2.09547 /NodeList/8/DeviceList/0/$ns3::CsmaNetDevice/TxQueue/Enqueue ns3::EthernetHeader ( length/type=0x800, source=00:00:00:00:00:0e, destination=00:00:00:00:00:0c) ns3::Ipv4Header (tos 0x0 DSCP Default ECN Not-ECT ttl 64 id 9 protocol 6 offset (bytes) 0 flags [none] length: 588 192.138.2.3 > 192.138.1.3) ns3::TcpHeader (49153 > 2400 [ACK] Seq=3753 Ack=1 Win=32768 ns3::TcpOptionTS(2095;2011) ns3::TcpOptionEnd(EOL)) Payload Fragment [3752:4288] ns3::EthernetTrailer (fcs=0)
+ 2.09547 /NodeList/8/DeviceList/0/$ns3::CsmaNetDevice/TxQueue/Enqueue ns3::EthernetHeader ( length/type=0x800, source=00:00:00:00:00:0e, destination=00:00:00:00:00:0c) ns3::Ipv4Header (tos 0x0 DSCP Default ECN Not-ECT ttl 64 id 10 protocol 6 offset (bytes) 0 flags [none] length: 264 192.138.2.3 > 192.138.1.3) ns3::TcpHeader (49153 > 2400 [ACK] Seq=4289 Ack=1 Win=32768 ns3::TcpOptionTS(2095;2011) ns3::TcpOptionEnd(EOL)) Payload Fragment [4288:4500] ns3::EthernetTrailer (fcs=0)
- 2.09563 /NodeList/8/DeviceList/0/$ns3::CsmaNetDevice/TxQueue/Dequeue ns3::EthernetHeader ( length/type=0x800, source=00:00:00:00:00:0e, destination=00:00:00:00:00:0c) ns3::Ipv4Header (tos 0x0 DSCP Default ECN Not-ECT ttl 64 id 3 protocol 6 offset (bytes) 0 flags [none] length: 588 192.138.2.3 > 192.138.1.3) ns3::TcpHeader (49153 > 2400 [ACK] Seq=537 Ack=1 Win=32768 ns3::TcpOptionTS(2095;2011) ns3::TcpOptionEnd(EOL)) Payload Fragment [536:1072] ns3::EthernetTrailer (fcs=0)
- 2.09582 /NodeList/8/DeviceList/0/$ns3::CsmaNetDevice/TxQueue/Dequeue ns3::EthernetHeader ( length/type=0x800, source=00:00:00:00:00:0e, destination=00:00:00:00:00:0c) ns3::Ipv4Header (tos 0x0 DSCP Default ECN Not-ECT ttl 64 id 4 protocol 6 offset (bytes) 0 flags [none] length: 588 192.138.2.3 > 192.138.1.3) ns3::TcpHeader (49153 > 2400 [ACK] Seq=1073 Ack=1 Win=32768 ns3::TcpOptionTS(2095;2011) ns3::TcpOptionEnd(EOL)) Payload Fragment [1072:1608] ns3::EthernetTrailer (fcs=0)
- 2.09606 /NodeList/8/DeviceList/0/$ns3::CsmaNetDevice/TxQueue/Dequeue ns3::EthernetHeader ( length/type=0x800, source=00:00:00:00:00:0e, destination=00:00:00:00:00:0c) ns3::Ipv4Header (tos 0x0 DSCP Default ECN Not-ECT ttl 64 id 5 protocol 6 offset (bytes) 0 flags [none] length: 588 192.138.2.3 > 192.138.1.3) ns3::TcpHeader (49153 > 2400 [ACK] Seq=1609 Ack=1 Win=32768 ns3::TcpOptionTS(2095;2011) ns3::TcpOptionEnd(EOL)) Payload Fragment [1608:2144] ns3::EthernetTrailer (fcs=0)
r 2.09612 /NodeList/8/DeviceList/0/$ns3::CsmaNetDevice/MacRx ns3::EthernetHeader ( length/type=0x800, source=00:00:00:00:00:0c, destination=00:00:00:00:00:0e) ns3::Ipv4Header (tos 0x0 DSCP Default ECN Not-ECT ttl 61 id 1 protocol 6 offset (bytes) 0 flags [none] length: 52 192.138.1.3 > 192.138.2.3) ns3::TcpHeader (2400 > 49153 [ACK] Seq=1 Ack=537 Win=32768 ns3::TcpOptionTS(2095;2095) ns3::TcpOptionEnd(EOL)) ns3::EthernetTrailer (fcs=0)
- 2.09633 /NodeList/8/DeviceList/0/$ns3::CsmaNetDevice/TxQueue/Dequeue ns3::EthernetHeader ( length/type=0x800, source=00:00:00:00:00:0e, destination=00:00:00:00:00:0c) ns3::Ipv4Header (tos 0x0 DSCP Default ECN Not-ECT ttl 64 id 6 protocol 6 offset (bytes) 0 flags [none] length: 588 192.138.2.3 > 192.138.1.3) ns3::TcpHeader (49153 > 2400 [ACK] Seq=2145 Ack=1 Win=32768 ns3::TcpOptionTS(2095;2011) ns3::TcpOptionEnd(EOL)) Payload Fragment [2144:2680] ns3::EthernetTrailer (fcs=0)
- 2.09652 /NodeList/8/DeviceList/0/$ns3::CsmaNetDevice/TxQueue/Dequeue ns3::EthernetHeader ( length/type=0x800, source=00:00:00:00:00:0e, destination=00:00:00:00:00:0c) ns3::Ipv4Header (tos 0x0 DSCP Default ECN Not-ECT ttl 64 id 7 protocol 6 offset (bytes) 0 flags [none] length: 588 192.138.2.3 > 192.138.1.3) ns3::TcpHeader (49153 > 2400 [ACK] Seq=2681 Ack=1 Win=32768 ns3::TcpOptionTS(2095;2011) ns3::TcpOptionEnd(EOL)) Payload Fragment [2680:3216] ns3::EthernetTrailer (fcs=0)
- 2.0967 /NodeList/8/DeviceList/0/$ns3::CsmaNetDevice/TxQueue/Dequeue ns3::EthernetHeader ( length/type=0x800, source=00:00:00:00:00:0e, destination=00:00:00:00:00:0c) ns3::Ipv4Header (tos 0x0 DSCP Default ECN Not-ECT ttl 64 id 8 protocol 6 offset (bytes) 0 flags [none] length: 588 192.138.2.3 > 192.138.1.3) ns3::TcpHeader (49153 > 2400 [ACK] Seq=3217 Ack=1 Win=32768 ns3::TcpOptionTS(2095;2011) ns3::TcpOptionEnd(EOL)) Payload Fragment [3216:3752] ns3::EthernetTrailer (fcs=0)
- 2.09688 /NodeList/8/DeviceList/0/$ns3::CsmaNetDevice/TxQueue/Dequeue ns3::EthernetHeader ( length/type=0x800, source=00:00:00:00:00:0e, destination=00:00:00:00:00:0c) ns3::Ipv4Header (tos 0x0 DSCP Default ECN Not-ECT ttl 64 id 9 protocol 6 offset (bytes) 0 flags [none] length: 588 192.138.2.3 > 192.138.1.3) ns3::TcpHeader (49153 > 2400 [ACK] Seq=3753 Ack=1 Win=32768 ns3::TcpOptionTS(2095;2011) ns3::TcpOptionEnd(EOL)) Payload Fragment [3752:4288] ns3::EthernetTrailer (fcs=0)
- 2.09707 /NodeList/8/DeviceList/0/$ns3::CsmaNetDevice/TxQueue/Dequeue ns3::EthernetHeader ( length/type=0x800, source=00:00:00:00:00:0e, destination=00:00:00:00:00:0c) ns3::Ipv4Header (tos 0x0 DSCP Default ECN Not-ECT ttl 64 id 10 protocol 6 offset (bytes) 0 flags [none] length: 264 192.138.2.3 > 192.138.1.3) ns3::TcpHeader (49153 > 2400 [ACK] Seq=4289 Ack=1 Win=32768 ns3::TcpOptionTS(2095;2011) ns3::TcpOptionEnd(EOL)) Payload Fragment [4288:4500] ns3::EthernetTrailer (fcs=0)
r 2.09734 /NodeList/8/DeviceList/0/$ns3::CsmaNetDevice/MacRx ns3::EthernetHeader ( length/type=0x800, source=00:00:00:00:00:0c, destination=00:00:00:00:00:0e) ns3::Ipv4Header (tos 0x0 DSCP Default ECN Not-ECT ttl 61 id 2 protocol 6 offset (bytes) 0 flags [none] length: 52 192.138.1.3 > 192.138.2.3) ns3::TcpHeader (2400 > 49153 [ACK] Seq=1 Ack=1609 Win=32768 ns3::TcpOptionTS(2096;2095) ns3::TcpOptionEnd(EOL)) ns3::EthernetTrailer (fcs=0)
r 2.09792 /NodeList/8/DeviceList/0/$ns3::CsmaNetDevice/MacRx ns3::EthernetHeader ( length/type=0x800, source=00:00:00:00:00:0c, destination=00:00:00:00:00:0e) ns3::Ipv4Header (tos 0x0 DSCP Default ECN Not-ECT ttl 61 id 3 protocol 6 offset (bytes) 0 flags [none] length: 52 192.138.1.3 > 192.138.2.3) ns3::TcpHeader (2400 > 49153 [ACK] Seq=1 Ack=2681 Win=32768 ns3::TcpOptionTS(2096;2095) ns3::TcpOptionEnd(EOL)) ns3::EthernetTrailer (fcs=0)
r 2.09796 /NodeList/8/DeviceList/0/$ns3::CsmaNetDevice/MacRx ns3::EthernetHeader ( length/type=0x800, source=00:00:00:00:00:0c, destination=00:00:00:00:00:0e) ns3::Ipv4Header (tos 0x0 DSCP Default ECN Not-ECT ttl 61 id 4 protocol 6 offset (bytes) 0 flags [none] length: 52 192.138.1.3 > 192.138.2.3) ns3::TcpHeader (2400 > 49153 [ACK] Seq=1 Ack=3753 Win=32768 ns3::TcpOptionTS(2097;2095) ns3::TcpOptionEnd(EOL)) ns3::EthernetTrailer (fcs=0)
r 2.098 /NodeList/8/DeviceList/0/$ns3::CsmaNetDevice/MacRx ns3::EthernetHeader ( length/type=0x800, source=00:00:00:00:00:0c, destination=00:00:00:00:00:0e) ns3::Ipv4Header (tos 0x0 DSCP Default ECN Not-ECT ttl 61 id 5 protocol 6 offset (bytes) 0 flags [none] length: 52 192.138.1.3 > 192.138.2.3) ns3::TcpHeader (2400 > 49153 [ACK] Seq=1 Ack=4501 Win=32768 ns3::TcpOptionTS(2097;2095) ns3::TcpOptionEnd(EOL)) ns3::EthernetTrailer (fcs=0)
+ 2.16747 /NodeList/8/DeviceList/0/$ns3::CsmaNetDevice/TxQueue/Enqueue ns3::EthernetHeader ( length/type=0x800, source=00:00:00:00:00:0e, destination=00:00:00:00:00:0c) ns3::Ipv4Header (tos 0x0 DSCP Default ECN Not-ECT ttl 64 id 11 protocol 6 offset (bytes) 0 flags [none] length: 588 192.138.2.3 > 192.138.1.3) ns3::TcpHeader (49153 > 2400 [ACK] Seq=4501 Ack=1 Win=32768 ns3::TcpOptionTS(2167;2097) ns3::TcpOptionEnd(EOL)) Payload Fragment [0:536] ns3::EthernetTrailer (fcs=0)
- 2.16747 /NodeList/8/DeviceList/0/$ns3::CsmaNetDevice/TxQueue/Dequeue ns3::EthernetHeader ( length/type=0x800, source=00:00:00:00:00:0e, destination=00:00:00:00:00:0c) ns3::Ipv4Header (tos 0x0 DSCP Default ECN Not-ECT ttl 64 id 11 protocol 6 offset (bytes) 0 flags [none] length: 588 192.138.2.3 > 192.138.1.3) ns3::TcpHeader (49153 > 2400 [ACK] Seq=4501 Ack=1 Win=32768 ns3::TcpOptionTS(2167;2097) ns3::TcpOptionEnd(EOL)) Payload Fragment [0:536] ns3::EthernetTrailer (fcs=0)
+ 2.16747 /NodeList/8/DeviceList/0/$ns3::CsmaNetDevice/TxQueue/Enqueue ns3::EthernetHeader ( length/type=0x800, source=00:00:00:00:00:0e, destination=00:00:00:00:00:0c) ns3::Ipv4Header (tos 0x0 DSCP Default ECN Not-ECT ttl 64 id 12 protocol 6 offset (bytes) 0 flags [none] length: 588 192.138.2.3 > 192.138.1.3) ns3::TcpHeader (49153 > 2400 [ACK] Seq=5037 Ack=1 Win=32768 ns3::TcpOptionTS(2167;2097) ns3::TcpOptionEnd(EOL)) Payload Fragment [536:1072] ns3::EthernetTrailer (fcs=0)
+ 2.16747 /NodeList/8/DeviceList/0/$ns3::CsmaNetDevice/TxQueue/Enqueue ns3::EthernetHeader ( length/type=0x800, source=00:00:00:00:00:0e, destination=00:00:00:00:00:0c) ns3::Ipv4Header (tos 0x0 DSCP Default ECN Not-ECT ttl 64 id 13 protocol 6 offset (bytes) 0 flags [none] length: 588 192.138.2.3 > 192.138.1.3) ns3::TcpHeader (49153 > 2400 [ACK] Seq=5573 Ack=1 Win=32768 ns3::TcpOptionTS(2167;2097) ns3::TcpOptionEnd(EOL)) Payload Fragment [1072:1608] ns3::EthernetTrailer (fcs=0)
+ 2.16747 /NodeList/8/DeviceList/0/$ns3::CsmaNetDevice/TxQueue/Enqueue ns3::EthernetHeader ( length/type=0x800, source=00:00:00:00:00:0e, destination=00:00:00:00:00:0c) ns3::Ipv4Header (tos 0x0 DSCP Default ECN Not-ECT ttl 64 id 14 protocol 6 offset (bytes) 0 flags [none] length: 588 192.138.2.3 > 192.138.1.3) ns3::TcpHeader (49153 > 2400 [ACK] Seq=6109 Ack=1 Win=32768 ns3::TcpOptionTS(2167;2097) ns3::TcpOptionEnd(EOL)) Payload Fragment [1608:2144] ns3::EthernetTrailer (fcs=0)
+ 2.16747 /NodeList/8/DeviceList/0/$ns3::CsmaNetDevice/TxQueue/Enqueue ns3::EthernetHeader ( length/type=0x800, source=00:00:00:00:00:0e, destination=00:00:00:00:00:0c) ns3::Ipv4Header (tos 0x0 DSCP Default ECN Not-ECT ttl 64 id 15 protocol 6 offset (bytes) 0 flags [none] length: 588 192.138.2.3 > 192.138.1.3) ns3::TcpHeader (49153 > 2400 [ACK] Seq=6645 Ack=1 Win=32768 ns3::TcpOptionTS(2167;2097) ns3::TcpOptionEnd(EOL)) Payload Fragment [2144:2680] ns3::EthernetTrailer (fcs=0)
+ 2.16747 /NodeList/8/DeviceList/0/$ns3::CsmaNetDevice/TxQueue/Enqueue ns3::EthernetHeader ( length/type=0x800, source=00:00:00:00:00:0e, destination=00:00:00:00:00:0c) ns3::Ipv4Header (tos 0x0 DSCP Default ECN Not-ECT ttl 64 id 16 protocol 6 offset (bytes) 0 flags [none] length: 588 192.138.2.3 > 192.138.1.3) ns3::TcpHeader (49153 > 2400 [ACK] Seq=7181 Ack=1 Win=32768 ns3::TcpOptionTS(2167;2097) ns3::TcpOptionEnd(EOL)) Payload Fragment [2680:3216] ns3::EthernetTrailer (fcs=0)
+ 2.16747 /NodeList/8/DeviceList/0/$ns3::CsmaNetDevice/TxQueue/Enqueue ns3::EthernetHeader ( length/type=0x800, source=00:00:00:00:00:0e, destination=00:00:00:00:00:0c) ns3::Ipv4Header (tos 0x0 DSCP Default ECN Not-ECT ttl 64 id 17 protocol 6 offset (bytes) 0 flags [none] length: 588 192.138.2.3 > 192.138.1.3) ns3::TcpHeader (49153 > 2400 [ACK] Seq=7717 Ack=1 Win=32768 ns3::TcpOptionTS(2167;2097) ns3::TcpOptionEnd(EOL)) Payload Fragment [3216:3752] ns3::EthernetTrailer (fcs=0)
+ 2.16747 /NodeList/8/DeviceList/0/$ns3::CsmaNetDevice/TxQueue/Enqueue ns3::EthernetHeader ( length/type=0x800, source=00:00:00:00:00:0e, destination=00:00:00:00:00:0c) ns3::Ipv4Header (tos 0x0 DSCP Default ECN Not-ECT ttl 64 id 18 protocol 6 offset (bytes) 0 flags [none] length: 588 192.138.2.3 > 192.138.1.3) ns3::TcpHeader (49153 > 2400 [ACK] Seq=8253 Ack=1 Win=32768 ns3::TcpOptionTS(2167;2097) ns3::TcpOptionEnd(EOL)) Payload Fragment [3752:4288] ns3::EthernetTrailer (fcs=0)
+ 2.16747 /NodeList/8/DeviceList/0/$ns3::CsmaNetDevice/TxQueue/Enqueue ns3::EthernetHeader ( length/type=0x800, source=00:00:00:00:00:0e, destination=00:00:00:00:00:0c) ns3::Ipv4Header (tos 0x0 DSCP Default ECN Not-ECT ttl 64 id 19 protocol 6 offset (bytes) 0 flags [none] length: 264 192.138.2.3 > 192.138.1.3) ns3::TcpHeader (49153 > 2400 [ACK] Seq=8789 Ack=1 Win=32768 ns3::TcpOptionTS(2167;2097) ns3::TcpOptionEnd(EOL)) Payload Fragment [4288:4500] ns3::EthernetTrailer (fcs=0)
- 2.16763 /NodeList/8/DeviceList/0/$ns3::CsmaNetDevice/TxQueue/Dequeue ns3::EthernetHeader ( length/type=0x800, source=00:00:00:00:00:0e, destination=00:00:00:00:00:0c) ns3::Ipv4Header (tos 0x0 DSCP Default ECN Not-ECT ttl 64 id 12 protocol 6 offset (bytes) 0 flags [none] length: 588 192.138.2.3 > 192.138.1.3) ns3::TcpHeader (49153 > 2400 [ACK] Seq=5037 Ack=1 Win=32768 ns3::TcpOptionTS(2167;2097) ns3::TcpOptionEnd(EOL)) Payload Fragment [536:1072] ns3::EthernetTrailer (fcs=0)
- 2.16782 /NodeList/8/DeviceList/0/$ns3::CsmaNetDevice/TxQueue/Dequeue ns3::EthernetHeader ( length/type=0x800, source=00:00:00:00:00:0e, destination=00:00:00:00:00:0c) ns3::Ipv4Header (tos 0x0 DSCP Default ECN Not-ECT ttl 64 id 13 protocol 6 offset (bytes) 0 flags [none] length: 588 192.138.2.3 > 192.138.1.3) ns3::TcpHeader (49153 > 2400 [ACK] Seq=5573 Ack=1 Win=32768 ns3::TcpOptionTS(2167;2097) ns3::TcpOptionEnd(EOL)) Payload Fragment [1072:1608] ns3::EthernetTrailer (fcs=0)
- 2.16801 /NodeList/8/DeviceList/0/$ns3::CsmaNetDevice/TxQueue/Dequeue ns3::EthernetHeader ( length/type=0x800, source=00:00:00:00:00:0e, destination=00:00:00:00:00:0c) ns3::Ipv4Header (tos 0x0 DSCP Default ECN Not-ECT ttl 64 id 14 protocol 6 offset (bytes) 0 flags [none] length: 588 192.138.2.3 > 192.138.1.3) ns3::TcpHeader (49153 > 2400 [ACK] Seq=6109 Ack=1 Win=32768 ns3::TcpOptionTS(2167;2097) ns3::TcpOptionEnd(EOL)) Payload Fragment [1608:2144] ns3::EthernetTrailer (fcs=0)
- 2.1682 /NodeList/8/DeviceList/0/$ns3::CsmaNetDevice/TxQueue/Dequeue ns3::EthernetHeader ( length/type=0x800, source=00:00:00:00:00:0e, destination=00:00:00:00:00:0c) ns3::Ipv4Header (tos 0x0 DSCP Default ECN Not-ECT ttl 64 id 15 protocol 6 offset (bytes) 0 flags [none] length: 588 192.138.2.3 > 192.138.1.3) ns3::TcpHeader (49153 > 2400 [ACK] Seq=6645 Ack=1 Win=32768 ns3::TcpOptionTS(2167;2097) ns3::TcpOptionEnd(EOL)) Payload Fragment [2144:2680] ns3::EthernetTrailer (fcs=0)
- 2.1684 /NodeList/8/DeviceList/0/$ns3::CsmaNetDevice/TxQueue/Dequeue ns3::EthernetHeader ( length/type=0x800, source=00:00:00:00:00:0e, destination=00:00:00:00:00:0c) ns3::Ipv4Header (tos 0x0 DSCP Default ECN Not-ECT ttl 64 id 16 protocol 6 offset (bytes) 0 flags [none] length: 588 192.138.2.3 > 192.138.1.3) ns3::TcpHeader (49153 > 2400 [ACK] Seq=7181 Ack=1 Win=32768 ns3::TcpOptionTS(2167;2097) ns3::TcpOptionEnd(EOL)) Payload Fragment [2680:3216] ns3::EthernetTrailer (fcs=0)
- 2.1686 /NodeList/8/DeviceList/0/$ns3::CsmaNetDevice/TxQueue/Dequeue ns3::EthernetHeader ( length/type=0x800, source=00:00:00:00:00:0e, destination=00:00:00:00:00:0c) ns3::Ipv4Header (tos 0x0 DSCP Default ECN Not-ECT ttl 64 id 17 protocol 6 offset (bytes) 0 flags [none] length: 588 192.138.2.3 > 192.138.1.3) ns3::TcpHeader (49153 > 2400 [ACK] Seq=7717 Ack=1 Win=32768 ns3::TcpOptionTS(2167;2097) ns3::TcpOptionEnd(EOL)) Payload Fragment [3216:3752] ns3::EthernetTrailer (fcs=0)
- 2.1688 /NodeList/8/DeviceList/0/$ns3::CsmaNetDevice/TxQueue/Dequeue ns3::EthernetHeader ( length/type=0x800, source=00:00:00:00:00:0e, destination=00:00:00:00:00:0c) ns3::Ipv4Header (tos 0x0 DSCP Default ECN Not-ECT ttl 64 id 18 protocol 6 offset (bytes) 0 flags [none] length: 588 192.138.2.3 > 192.138.1.3) ns3::TcpHeader (49153 > 2400 [ACK] Seq=8253 Ack=1 Win=32768 ns3::TcpOptionTS(2167;2097) ns3::TcpOptionEnd(EOL)) Payload Fragment [3752:4288] ns3::EthernetTrailer (fcs=0)
- 2.169 /NodeList/8/DeviceList/0/$ns3::CsmaNetDevice/TxQueue/Dequeue ns3::EthernetHeader ( length/type=0x800, source=00:00:00:00:00:0e, destination=00:00:00:00:00:0c) ns3::Ipv4Header (tos 0x0 DSCP Default ECN Not-ECT ttl 64 id 19 protocol 6 offset (bytes) 0 flags [none] length: 264 192.138.2.3 > 192.138.1.3) ns3::TcpHeader (49153 > 2400 [ACK] Seq=8789 Ack=1 Win=32768 ns3::TcpOptionTS(2167;2097) ns3::TcpOptionEnd(EOL)) Payload Fragment [4288:4500] ns3::EthernetTrailer (fcs=0)
r 2.16917 /NodeList/8/DeviceList/0/$ns3::CsmaNetDevice/MacRx ns3::EthernetHeader ( length/type=0x800, source=00:00:00:00:00:0c, destination=00:00:00:00:00:0e) ns3::Ipv4Header (tos 0x0 DSCP Default ECN Not-ECT ttl 61 id 6 protocol 6 offset (bytes) 0 flags [none] length: 52 192.138.1.3 > 192.138.2.3) ns3::TcpHeader (2400 > 49153 [ACK] Seq=1 Ack=5573 Win=32768 ns3::TcpOptionTS(2168;2167) ns3::TcpOptionEnd(EOL)) ns3::EthernetTrailer (fcs=0)
r 2.16921 /NodeList/8/DeviceList/0/$ns3::CsmaNetDevice/MacRx ns3::EthernetHeader ( length/type=0x800, source=00:00:00:00:00:0c, destination=00:00:00:00:00:0e) ns3::Ipv4Header (tos 0x0 DSCP Default ECN Not-ECT ttl 61 id 7 protocol 6 offset (bytes) 0 flags [none] length: 52 192.138.1.3 > 192.138.2.3) ns3::TcpHeader (2400 > 49153 [ACK] Seq=1 Ack=6645 Win=32768 ns3::TcpOptionTS(2168;2167) ns3::TcpOptionEnd(EOL)) ns3::EthernetTrailer (fcs=0)
r 2.16925 /NodeList/8/DeviceList/0/$ns3::CsmaNetDevice/MacRx ns3::EthernetHeader ( length/type=0x800, source=00:00:00:00:00:0c, destination=00:00:00:00:00:0e) ns3::Ipv4Header (tos 0x0 DSCP Default ECN Not-ECT ttl 61 id 8 protocol 6 offset (bytes) 0 flags [none] length: 52 192.138.1.3 > 192.138.2.3) ns3::TcpHeader (2400 > 49153 [ACK] Seq=1 Ack=7717 Win=32768 ns3::TcpOptionTS(2169;2167) ns3::TcpOptionEnd(EOL)) ns3::EthernetTrailer (fcs=0)
r 2.16967 /NodeList/8/DeviceList/0/$ns3::CsmaNetDevice/MacRx ns3::EthernetHeader ( length/type=0x800, source=00:00:00:00:00:0c, destination=00:00:00:00:00:0e) ns3::Ipv4Header (tos 0x0 DSCP Default ECN Not-ECT ttl 61 id 9 protocol 6 offset (bytes) 0 flags [none] length: 52 192.138.1.3 > 192.138.2.3) ns3::TcpHeader (2400 > 49153 [ACK] Seq=1 Ack=8789 Win=32768 ns3::TcpOptionTS(2169;2167) ns3::TcpOptionEnd(EOL)) ns3::EthernetTrailer (fcs=0)
+ 2.23947 /NodeList/8/DeviceList/0/$ns3::CsmaNetDevice/TxQueue/Enqueue ns3::EthernetHeader ( length/type=0x800, source=00:00:00:00:00:0e, destination=00:00:00:00:00:0c) ns3::Ipv4Header (tos 0x0 DSCP Default ECN Not-ECT ttl 64 id 20 protocol 6 offset (bytes) 0 flags [none] length: 588 192.138.2.3 > 192.138.1.3) ns3::TcpHeader (49153 > 2400 [ACK] Seq=9001 Ack=1 Win=32768 ns3::TcpOptionTS(2239;2169) ns3::TcpOptionEnd(EOL)) Payload Fragment [0:536] ns3::EthernetTrailer (fcs=0)
- 2.23947 /NodeList/8/DeviceList/0/$ns3::CsmaNetDevice/TxQueue/Dequeue ns3::EthernetHeader ( length/type=0x800, source=00:00:00:00:00:0e, destination=00:00:00:00:00:0c) ns3::Ipv4Header (tos 0x0 DSCP Default ECN Not-ECT ttl 64 id 20 protocol 6 offset (bytes) 0 flags [none] length: 588 192.138.2.3 > 192.138.1.3) ns3::TcpHeader (49153 > 2400 [ACK] Seq=9001 Ack=1 Win=32768 ns3::TcpOptionTS(2239;2169) ns3::TcpOptionEnd(EOL)) Payload Fragment [0:536] ns3::EthernetTrailer (fcs=0)
+ 2.23947 /NodeList/8/DeviceList/0/$ns3::CsmaNetDevice/TxQueue/Enqueue ns3::EthernetHeader ( length/type=0x800, source=00:00:00:00:00:0e, destination=00:00:00:00:00:0c) ns3::Ipv4Header (tos 0x0 DSCP Default ECN Not-ECT ttl 64 id 21 protocol 6 offset (bytes) 0 flags [none] length: 588 192.138.2.3 > 192.138.1.3) ns3::TcpHeader (49153 > 2400 [ACK] Seq=9537 Ack=1 Win=32768 ns3::TcpOptionTS(2239;2169) ns3::TcpOptionEnd(EOL)) Payload Fragment [536:1072] ns3::EthernetTrailer (fcs=0)
+ 2.23947 /NodeList/8/DeviceList/0/$ns3::CsmaNetDevice/TxQueue/Enqueue ns3::EthernetHeader ( length/type=0x800, source=00:00:00:00:00:0e, destination=00:00:00:00:00:0c) ns3::Ipv4Header (tos 0x0 DSCP Default ECN Not-ECT ttl 64 id 22 protocol 6 offset (bytes) 0 flags [none] length: 588 192.138.2.3 > 192.138.1.3) ns3::TcpHeader (49153 > 2400 [ACK] Seq=10073 Ack=1 Win=32768 ns3::TcpOptionTS(2239;2169) ns3::TcpOptionEnd(EOL)) Payload Fragment [1072:1608] ns3::EthernetTrailer (fcs=0)
+ 2.23947 /NodeList/8/DeviceList/0/$ns3::CsmaNetDevice/TxQueue/Enqueue ns3::EthernetHeader ( length/type=0x800, source=00:00:00:00:00:0e, destination=00:00:00:00:00:0c) ns3::Ipv4Header (tos 0x0 DSCP Default ECN Not-ECT ttl 64 id 23 protocol 6 offset (bytes) 0 flags [none] length: 588 192.138.2.3 > 192.138.1.3) ns3::TcpHeader (49153 > 2400 [ACK] Seq=10609 Ack=1 Win=32768 ns3::TcpOptionTS(2239;2169) ns3::TcpOptionEnd(EOL)) Payload Fragment [1608:2144] ns3::EthernetTrailer (fcs=0)
+ 2.23947 /NodeList/8/DeviceList/0/$ns3::CsmaNetDevice/TxQueue/Enqueue ns3::EthernetHeader ( length/type=0x800, source=00:00:00:00:00:0e, destination=00:00:00:00:00:0c) ns3::Ipv4Header (tos 0x0 DSCP Default ECN Not-ECT ttl 64 id 24 protocol 6 offset (bytes) 0 flags [none] length: 588 192.138.2.3 > 192.138.1.3) ns3::TcpHeader (49153 > 2400 [ACK] Seq=11145 Ack=1 Win=32768 ns3::TcpOptionTS(2239;2169) ns3::TcpOptionEnd(EOL)) Payload Fragment [2144:2680] ns3::EthernetTrailer (fcs=0)
+ 2.23947 /NodeList/8/DeviceList/0/$ns3::CsmaNetDevice/TxQueue/Enqueue ns3::EthernetHeader ( length/type=0x800, source=00:00:00:00:00:0e, destination=00:00:00:00:00:0c) ns3::Ipv4Header (tos 0x0 DSCP Default ECN Not-ECT ttl 64 id 25 protocol 6 offset (bytes) 0 flags [none] length: 588 192.138.2.3 > 192.138.1.3) ns3::TcpHeader (49153 > 2400 [ACK] Seq=11681 Ack=1 Win=32768 ns3::TcpOptionTS(2239;2169) ns3::TcpOptionEnd(EOL)) Payload Fragment [2680:3216] ns3::EthernetTrailer (fcs=0)
+ 2.23947 /NodeList/8/DeviceList/0/$ns3::CsmaNetDevice/TxQueue/Enqueue ns3::EthernetHeader ( length/type=0x800, source=00:00:00:00:00:0e, destination=00:00:00:00:00:0c) ns3::Ipv4Header (tos 0x0 DSCP Default ECN Not-ECT ttl 64 id 26 protocol 6 offset (bytes) 0 flags [none] length: 588 192.138.2.3 > 192.138.1.3) ns3::TcpHeader (49153 > 2400 [ACK] Seq=12217 Ack=1 Win=32768 ns3::TcpOptionTS(2239;2169) ns3::TcpOptionEnd(EOL)) Payload Fragment [3216:3752] ns3::EthernetTrailer (fcs=0)